LAMMPS data file. msi2lmp v3.9.10 / 10 Mar 2023 / CGCMM for CHO

     24 atoms
     24 bonds
     40 angles
     54 dihedrals
      7 impropers

   7 atom types
   9 bond types
  14 angle types
  19 dihedral types
   3 improper types

    -5.310841188     4.392704290 xlo xhi
    -2.928851212     4.403800818 ylo yhi
    -1.905168723     3.843331019 zlo zhi

Masses

   1  12.011150 # cp
   2  12.011150 # c2
   3   0.000000 # c_0
   4   0.000000 # o_1
   5  15.999400 # oh
   6   1.007970 # hc
   7   1.007970 # ho

Pair Coeffs # lj/cut/coul/long

   1   0.1479999981   3.6170487995 # cp
   2   0.0389999952   3.8754094636 # c2
   3   0.0389999952   3.8754094636 # c_0
   4   0.0389999952   3.8754094636 # o_1
   5   0.2280000124   2.8597848722 # oh
   6   0.0380000011   2.4499714540 # hc
   7   0.0000000000   0.0000000000 # ho

Bond Coeffs # harmonic

   1   480.0000     1.3400 # cp-cp
   2   363.4164     1.0800 # cp-hc
   3   283.0924     1.5100 # cp-c2
   4   322.7158     1.5260 # c2-c2
   5   340.6175     1.1050 # c2-hc
   6   340.6175     1.1050 # c2-c_0
   7   340.6175     1.1050 # c_0-o_1
   8   384.0000     1.4200 # c2-oh
   9   540.6336     0.9600 # oh-ho

Angle Coeffs # harmonic

   1    90.0000   120.0000 # cp-cp-cp
   2    37.0000   120.0000 # cp-cp-hc
   3    44.2000   120.0000 # cp-cp-c2
   4    46.6000   110.5000 # cp-c2-c2
   5    44.4000   110.0000 # cp-c2-hc
   6    44.4000   110.0000 # c2-c2-hc
   7    39.5000   106.4000 # hc-c2-hc
   8    44.4000   110.0000 # c2-c2-c_0
   9    44.4000   110.0000 # c_0-c2-hc
  10    46.6000   110.5000 # c2-c_0-c2
  11    46.6000   110.5000 # c2-c_0-o_1
  12    70.0000   109.5000 # c_0-c2-oh
  13    57.0000   109.5000 # oh-c2-hc
  14    58.5000   106.0000 # c2-oh-ho

Dihedral Coeffs # harmonic

  1     3.0000  -1   2 # cp-cp-cp-cp
  2     3.0000  -1   2 # cp-cp-cp-hc
  3     3.0000  -1   2 # hc-cp-cp-hc
  4     3.0000  -1   2 # cp-cp-cp-c2
  5     3.0000  -1   2 # c2-cp-cp-hc
  6     0.0000   1   2 # cp-cp-c2-c2
  7     0.0000   1   2 # cp-cp-c2-hc
  8     0.1581   1   3 # cp-c2-c2-c_0
  9     0.1581   1   3 # cp-c2-c2-hc
 10     0.1581   1   3 # c_0-c2-c2-hc
 11     0.1581   1   3 # hc-c2-c2-hc
 12     0.2371   1   3 # c2-c2-c_0-c2
 13     0.2371   1   3 # c2-c2-c_0-o_1
 14     0.2371   1   3 # hc-c2-c_0-c2
 15     0.2371   1   3 # hc-c2-c_0-o_1
 16     0.2371   1   3 # oh-c2-c_0-c2
 17     0.2371   1   3 # oh-c2-c_0-o_1
 18     0.1300   1   3 # c_0-c2-oh-ho
 19     0.1300   1   3 # hc-c2-oh-ho

Improper Coeffs # cvff

    1     0.3700  -1   2 # cp-cp-cp-hc
    2     0.3700  -1   2 # cp-cp-cp-c2
    3     0.0000   0   0 # c2-c_0-c2-o_1

Atoms # full

      1      1   1  0.000000    -3.723656026    -0.522720070    -0.317257371   0   0   0 # cp
      2      1   1  0.000000    -2.973151421    -1.579259161    -0.836172020   0   0   0 # cp
      3      1   1  0.000000    -1.593142890    -1.602520794    -0.621337977   0   0   0 # cp
      4      1   1  0.000000    -0.976122534    -0.582728446     0.100804507   0   0   0 # cp
      5      1   1  0.000000    -1.708637606     0.486140896     0.625759878   0   0   0 # cp
      6      1   1  0.000000    -3.092565707     0.489180360     0.401194675   0   0   0 # cp
      7      1   2  0.000000    -1.102085352     1.640552933     1.427454776   0   0   0 # c2
      8      1   2  0.000000     0.421891681     1.629557286     1.504319876   0   0   0 # c2
      9      1   3  0.000000     0.997313500     2.816666382     2.267369294   0   0   0 # c_0
     10      1   2  0.000000     2.524862257     2.900511841     2.362389836   0   0   0 # c2
     11      1   4  0.000000     0.297403799     3.666466517     2.775018104   0   0   0 # o_1
     12      1   5  0.000000     2.930670300     1.915069670     3.299751331   0   0   0 # oh
     13      1   6  0.000000    -4.810841188    -0.488936178    -0.475638247   0   0   0 # hc
     14      1   6  0.000000    -3.461325081    -2.382232619    -1.405168723   0   0   0 # hc
     15      1   6  0.000000    -0.990427054    -2.428851212    -1.023993240   0   0   0 # hc
     16      1   6  0.000000     0.111542336    -0.638262061     0.248406643   0   0   0 # hc
     17      1   6  0.000000    -3.701071411     1.313454056     0.802492371   0   0   0 # hc
     18      1   6  0.000000    -1.514881698     1.620990819     2.452482382   0   0   0 # hc
     19      1   6  0.000000    -1.427971115     2.594201974     0.975107617   0   0   0 # hc
     20      1   6  0.000000     0.872423884     1.636691880     0.494366802   0   0   0 # hc
     21      1   6  0.000000     0.787407303     0.709039044     1.995890869   0   0   0 # hc
     22      1   6  0.000000     2.812185110     3.903800818     2.708082791   0   0   0 # hc
     23      1   6  0.000000     2.984313448     2.696482726     1.378474648   0   0   0 # hc
     24      1   7  0.000000     3.892704290     1.988054619     3.343331019   0   0   0 # ho

Bonds

     1   1      1      2
     2   1      1      6
     3   2      1     13
     4   1      2      3
     5   2      2     14
     6   1      3      4
     7   2      3     15
     8   1      4      5
     9   2      4     16
    10   1      5      6
    11   3      5      7
    12   2      6     17
    13   4      7      8
    14   5      7     18
    15   5      7     19
    16   6      8      9
    17   5      8     20
    18   5      8     21
    19   6     10      9
    20   7      9     11
    21   8     10     12
    22   5     10     22
    23   5     10     23
    24   9     12     24

Angles

     1   1      2      1      6
     2   2      2      1     13
     3   2      6      1     13
     4   1      3      2      1
     5   2      3      2     14
     6   2      1      2     14
     7   1      2      3      4
     8   2      2      3     15
     9   2      4      3     15
    10   1      3      4      5
    11   2      3      4     16
    12   2      5      4     16
    13   1      4      5      6
    14   3      4      5      7
    15   3      6      5      7
    16   1      5      6      1
    17   2      5      6     17
    18   2      1      6     17
    19   4      5      7      8
    20   5      5      7     18
    21   5      5      7     19
    22   6      8      7     18
    23   6      8      7     19
    24   7     18      7     19
    25   8      7      8      9
    26   6      7      8     20
    27   6      7      8     21
    28   9      9      8     20
    29   9      9      8     21
    30   7     20      8     21
    31  10      8      9     10
    32  11      8      9     11
    33  11     10      9     11
    34  12      9     10     12
    35   9      9     10     22
    36   9      9     10     23
    37  13     12     10     22
    38  13     12     10     23
    39   7     22     10     23
    40  14     10     12     24

Dihedrals

     1   1      6      1      2      3
     2   2      6      1      2     14
     3   2      3      2      1     13
     4   3     13      1      2     14
     5   1      2      1      6      5
     6   2      2      1      6     17
     7   2      5      6      1     13
     8   3     13      1      6     17
     9   1      1      2      3      4
    10   2      1      2      3     15
    11   2      4      3      2     14
    12   3     14      2      3     15
    13   1      2      3      4      5
    14   2      2      3      4     16
    15   2      5      4      3     15
    16   3     15      3      4     16
    17   1      3      4      5      6
    18   4      3      4      5      7
    19   2      6      5      4     16
    20   5      7      5      4     16
    21   1      4      5      6      1
    22   2      4      5      6     17
    23   4      1      6      5      7
    24   5      7      5      6     17
    25   6      4      5      7      8
    26   7      4      5      7     18
    27   7      4      5      7     19
    28   6      6      5      7      8
    29   7      6      5      7     18
    30   7      6      5      7     19
    31   8      5      7      8      9
    32   9      5      7      8     20
    33   9      5      7      8     21
    34  10      9      8      7     18
    35  11     18      7      8     20
    36  11     18      7      8     21
    37  10      9      8      7     19
    38  11     19      7      8     20
    39  11     19      7      8     21
    40  12      7      8      9     10
    41  13      7      8      9     11
    42  14     20      8      9     10
    43  15     20      8      9     11
    44  14     21      8      9     10
    45  15     21      8      9     11
    46  16     12     10      9      8
    47  14     22     10      9      8
    48  14     23     10      9      8
    49  17     12     10      9     11
    50  15     22     10      9     11
    51  15     23     10      9     11
    52  18      9     10     12     24
    53  19     22     10     12     24
    54  19     23     10     12     24

Impropers

     1   1      2      1      6     13 
     2   1      3      2      1     14 
     3   1      2      3      4     15 
     4   1      3      4      5     16 
     5   2      4      5      6      7 
     6   1      5      6      1     17 
     7   3      8      9     10     11 

